version 2
run Ping1-0-20150317-20:20:32-8076
attr configname Ping1
attr datetime 20150317-20:20:32
attr experiment Ping1
attr inifile omnetpp.ini
attr iterationvars ""
attr iterationvars2 $repetition=0
attr measurement ""
attr network Adhoc
attr processid 8076
attr repetition 0
attr replication #0
attr resultdir results
attr runnumber 0
attr seedset 0

vector 12  Adhoc.host[1].pingApp[0]  pingTxSeq:vector  ETV
attr interpolationmode  none
attr title  "ping tx seq, vector"
vector 14  Adhoc.host[1].networkLayer.arp  sentReq:vector  ETV
attr title  "ARP request sent, vector"
vector 16  Adhoc.host[1].networkLayer.arp  initiatedResolution:vector  ETV
attr title  "ARP initiated resolutions, vector"
vector 13  Adhoc.host[1].pingApp[0]  pingRxSeq:vector  ETV
attr interpolationmode  none
attr title  "ping rx seq, vector"
vector 9  Adhoc.host[1].pingApp[0]  rtt:vector  ETV
attr interpolationmode  none
attr title  "ping round-trip time, vector"
attr unit  s
vector 10  Adhoc.host[1].pingApp[0]  numLost:vector  ETV
attr interpolationmode  none
attr title  "pings lost, vector"
vector 17  Adhoc.host[1].networkLayer.arp  failedResolution:vector  ETV
attr title  "ARP failed resolutions, vector"
9	2785	3.775786000001	0.404407534446
9	3420	4.556536000001	0.185157534446
9	4201	5.540036000001	0.168657534446
9	5014	6.573036000001	0.201657534446
9	5804	7.573036000001	0.201657534446
9	6595	8.575786000001	0.204407534446
9	7345	9.520786000001	0.149407534446
9	8144	10.529036000001	0.157657534446
9	72239	97.581286000001	0.209907534446
9	73036	98.592286000001	0.220907534446
9	73774	99.518036000001	0.146657534446
9	74593	100.559286000001	0.187907534446
9	75411	101.595036000001	0.223657534446
9	76167	102.545536000001	0.174157534446
9	76954	103.537286000001	0.165907534446
9	77773	104.575786000001	0.204407534446
9	78555	105.562036000001	0.190657534446
9	79367	106.589536000001	0.218157534446
9	80150	107.581286000001	0.209907534446
9	80896	108.518036000001	0.146657534446
9	81704	109.545536000001	0.174157534446
9	82492	110.540036000001	0.168657534446
9	83310	111.575786000001	0.204407534446
9	84068	112.529036000001	0.157657534446
9	84862	113.531786000001	0.160407534446
9	85670	114.559286000001	0.187907534446
9	86449	115.545536000001	0.174157534446
9	87266	116.584036000001	0.212657534446
9	88057	117.581286000001	0.209907534446
9	88842	118.581286000001	0.209907534446
9	89608	119.545536000001	0.174157534446
9	90408	120.556536000001	0.185157534446
9	91195	121.553786000001	0.182407534446
9	92002	122.578536000001	0.207157534446
9	92753	123.526286000001	0.154907534446
9	93780	124.778536000001	0.407157534446
9	94426	125.570286000001	0.198907534446
9	95214	126.564786000001	0.193407534446
9	96024	127.589536000001	0.218157534446
9	100577	133.548286000001	0.176907534446
9	101351	134.526286000001	0.154907534446
9	102162	135.553786000001	0.182407534446
9	102970	136.575786000001	0.204407534446
9	103779	137.597786000001	0.226407534446
9	104524	138.537286000001	0.165907534446
9	105348	139.581286000001	0.209907534446
9	106144	140.592286000001	0.220907534446
9	106889	141.529036000001	0.157657534446
9	107687	142.537286000001	0.165907534446
9	108465	143.523536000001	0.152157534446
9	109268	144.540036000001	0.168657534446
9	110092	145.584036000001	0.212657534446
9	110871	146.564786000001	0.193407534446
9	111652	147.548286000001	0.176907534446
9	112423	148.518036000001	0.146657534446
9	113266	149.592286000001	0.220907534446
9	114038	150.564786000001	0.193407534446
9	114827	151.562036000001	0.190657534446
9	115642	152.595036000001	0.223657534446
9	116378	153.518036000001	0.146657534446
9	117218	154.584036000001	0.212657534446
9	118017	155.595036000001	0.223657534446
9	118771	156.548286000001	0.176907534446
9	119553	157.542786000001	0.171407534446
9	120343	158.540036000001	0.168657534446
9	121124	159.534536000001	0.163157534446
9	121954	160.586786000001	0.215407534446
9	122697	161.518036000001	0.146657534446
9	123535	162.586786000001	0.215407534446
9	124305	163.556536000001	0.185157534446
9	125069	164.520786000001	0.149407534446
9	125905	165.581286000001	0.209907534446
9	126676	166.551036000001	0.179657534446
9	127463	167.545536000001	0.174157534446
9	128261	168.556536000001	0.185157534446
9	129026	169.523536000001	0.152157534446
9	129817	170.526286000001	0.154907534446
9	130620	171.542786000001	0.171407534446
9	131430	172.567536000001	0.196157534446
9	132196	173.531786000001	0.160407534446
9	133017	174.573036000001	0.201657534446
9	133820	175.586786000001	0.215407534446
9	134592	176.562036000001	0.190657534446
9	135354	177.529036000001	0.157657534446
9	136165	178.559286000001	0.187907534446
9	136950	179.548286000001	0.176907534446
9	137730	180.545536000001	0.174157534446
9	138516	181.537286000001	0.165907534446
9	139306	182.534536000001	0.163157534446
9	140118	183.562036000001	0.190657534446
9	140921	184.581286000001	0.209907534446
9	141689	185.548286000001	0.176907534446
9	142517	186.597786000001	0.226407534446
9	143266	187.540036000001	0.168657534446
9	144068	188.553786000001	0.182407534446
9	144875	189.575786000001	0.204407534446
9	145628	190.526286000001	0.154907534446
9	207671	274.737286000001	2.365907534446
9	207725	274.786786000001	1.415407534446
9	207751	274.797786000001	0.426407534446
9	208363	275.542786000001	0.171407534446
9	209132	276.520786000001	0.149407534446
9	209970	277.589536000001	0.218157534446
9	210738	278.562036000001	0.190657534446
9	211544	279.584036000001	0.212657534446
9	212302	280.540036000001	0.168657534446
9	213105	281.556536000001	0.185157534446
9	213873	282.523536000001	0.152157534446
9	214687	283.559286000001	0.187907534446
9	215482	284.564786000001	0.193407534446
9	216286	285.584036000001	0.212657534446
9	217038	286.534536000001	0.163157534446
9	217839	287.545536000001	0.174157534446
9	218614	288.526286000001	0.154907534446
9	219407	289.537286000001	0.165907534446
9	220204	290.548286000001	0.176907534446
9	221024	291.589536000001	0.218157534446
9	221802	292.578536000001	0.207157534446
9	222544	293.518036000001	0.146657534446
9	223382	294.584036000001	0.212657534446
9	224131	295.529036000001	0.157657534446
9	224927	296.540036000001	0.168657534446
9	225718	297.537286000001	0.165907534446
9	226541	298.581286000001	0.209907534446
9	227342	299.597786000001	0.226407534446
10	72239	97.581286000001	86
10	100577	133.548286000001	91
10	207671	274.737286000001	172
12	2359	3.371378465555	0
12	3207	4.371378465555	1
12	3999	5.371378465555	2
12	4789	6.371378465555	3
12	5578	7.371378465555	4
12	6368	8.371378465555	5
12	7157	9.371378465555	6
12	7950	10.371378465555	7
12	8743	11.371378465555	8
12	9522	12.371378465555	9
12	10266	13.371378465555	10
12	11011	14.371378465555	11
12	11758	15.371378465555	12
12	12502	16.371378465555	13
12	13249	17.371378465555	14
12	13993	18.371378465555	15
12	14738	19.371378465555	16
12	15482	20.371378465555	17
12	16224	21.371378465555	18
12	16969	22.371378465555	19
12	17713	23.371378465555	20
12	18455	24.371378465555	21
12	19197	25.371378465555	22
12	19939	26.371378465555	23
12	20684	27.371378465555	24
12	21428	28.371378465555	25
12	22173	29.371378465555	26
12	22915	30.371378465555	27
12	23659	31.371378465555	28
12	24405	32.371378465555	29
12	25154	33.371378465555	30
12	25896	34.371378465555	31
12	26643	35.371378465555	32
12	27387	36.371378465555	33
12	28134	37.371378465555	34
12	28879	38.371378465555	35
12	29614	39.371378465555	36
12	30341	40.371378465555	37
12	31071	41.371378465555	38
12	31801	42.371378465555	39
12	32531	43.371378465555	40
12	33264	44.371378465555	41
12	33994	45.371378465555	42
12	34727	46.371378465555	43
12	35460	47.371378465555	44
12	36184	48.371378465555	45
12	36917	49.371378465555	46
12	37650	50.371378465555	47
12	38384	51.371378465555	48
12	39117	52.371378465555	49
12	39850	53.371378465555	50
12	40583	54.371378465555	51
12	41316	55.371378465555	52
12	42046	56.371378465555	53
12	42779	57.371378465555	54
12	43509	58.371378465555	55
12	44236	59.371378465555	56
12	44966	60.371378465555	57
12	45697	61.371378465555	58
12	46427	62.371378465555	59
12	47160	63.371378465555	60
12	47887	64.371378465555	61
12	48620	65.371378465555	62
12	49353	66.371378465555	63
12	50086	67.371378465555	64
12	50819	68.371378465555	65
12	51552	69.371378465555	66
12	52282	70.371378465555	67
12	53015	71.371378465555	68
12	53742	72.371378465555	69
12	54475	73.371378465555	70
12	55205	74.371378465555	71
12	55938	75.371378465555	72
12	56671	76.371378465555	73
12	57398	77.371378465555	74
12	58119	78.371378465555	75
12	58852	79.371378465555	76
12	59582	80.371378465555	77
12	60306	81.371378465555	78
12	61039	82.371378465555	79
12	61772	83.371378465555	80
12	62505	84.371378465555	81
12	63235	85.371378465555	82
12	63965	86.371378465555	83
12	64698	87.371378465555	84
12	65431	88.371378465555	85
12	66161	89.371378465555	86
12	66891	90.371378465555	87
12	67621	91.371378465555	88
12	68354	92.371378465555	89
12	69087	93.371378465555	90
12	69817	94.371378465555	91
12	70550	95.371378465555	92
12	71277	96.371378465555	93
12	72008	97.371378465555	94
12	72797	98.371378465555	95
12	73589	99.371378465555	96
12	74381	100.371378465555	97
12	75170	101.371378465555	98
12	75962	102.371378465555	99
12	76754	103.371378465555	100
12	77547	104.371378465555	101
12	78338	105.371378465555	102
12	79130	106.371378465555	103
12	79919	107.371378465555	104
12	80711	108.371378465555	105
12	81500	109.371378465555	106
12	82291	110.371378465555	107
12	83083	111.371378465555	108
12	83875	112.371378465555	109
12	84667	113.371378465555	110
12	85459	114.371378465555	111
12	86244	115.371378465555	112
12	87033	116.371378465555	113
12	87825	117.371378465555	114
12	88615	118.371378465555	115
12	89403	119.371378465555	116
12	90195	120.371378465555	117
12	90984	121.371378465555	118
12	91773	122.371378465555	119
12	92562	123.371378465555	120
12	93351	124.371378465555	121
12	94203	125.371378465555	122
12	94995	126.371378465555	123
12	95787	127.371378465555	124
12	96579	128.371378465555	125
12	97396	129.371378465555	126
12	98142	130.371378465555	127
12	98885	131.371378465555	128
12	99629	132.371378465555	129
12	100371	133.371378465555	130
12	101159	134.371378465555	131
12	101952	135.371378465555	132
12	102743	136.371378465555	133
12	103535	137.371378465555	134
12	104325	138.371378465555	135
12	105117	139.371378465555	136
12	105906	140.371378465555	137
12	106697	141.371378465555	138
12	107488	142.371378465555	139
12	108277	143.371378465555	140
12	109068	144.371378465555	141
12	109859	145.371378465555	142
12	110651	146.371378465555	143
12	111444	147.371378465555	144
12	112237	148.371378465555	145
12	113027	149.371378465555	146
12	113819	150.371378465555	147
12	114611	151.371378465555	148
12	115402	152.371378465555	149
12	116193	153.371378465555	150
12	116985	154.371378465555	151
12	117777	155.371378465555	152
12	118568	156.371378465555	153
12	119350	157.371378465555	154
12	120142	158.371378465555	155
12	120928	159.371378465555	156
12	121719	160.371378465555	157
12	122511	161.371378465555	158
12	123301	162.371378465555	159
12	124092	163.371378465555	160
12	124881	164.371378465555	161
12	125674	165.371378465555	162
12	126466	166.371378465555	163
12	127259	167.371378465555	164
12	128047	168.371378465555	165
12	128837	169.371378465555	166
12	129626	170.371378465555	167
12	130418	171.371378465555	168
12	131209	172.371378465555	169
12	132001	173.371378465555	170
12	132793	174.371378465555	171
12	133584	175.371378465555	172
12	134374	176.371378465555	173
12	135161	177.371378465555	174
12	135950	178.371378465555	175
12	136742	179.371378465555	176
12	137529	180.371378465555	177
12	138317	181.371378465555	178
12	139109	182.371378465555	179
12	139901	183.371378465555	180
12	140690	184.371378465555	181
12	141482	185.371378465555	182
12	142274	186.371378465555	183
12	143066	187.371378465555	184
12	143857	188.371378465555	185
12	144649	189.371378465555	186
12	145437	190.371378465555	187
12	146226	191.371378465555	188
12	146968	192.371378465555	189
12	147706	193.371378465555	190
12	148449	194.371378465555	191
12	149197	195.371378465555	192
12	149944	196.371378465555	193
12	150689	197.371378465555	194
12	151436	198.371378465555	195
12	152181	199.371378465555	196
12	152929	200.371378465555	197
12	153665	201.371378465555	198
12	154407	202.371378465555	199
12	155151	203.371378465555	200
12	155893	204.371378465555	201
12	156640	205.371378465555	202
12	157385	206.371378465555	203
12	158123	207.371378465555	204
12	158868	208.371378465555	205
12	159615	209.371378465555	206
12	160357	210.371378465555	207
12	161101	211.371378465555	208
12	161848	212.371378465555	209
12	162590	213.371378465555	210
12	163337	214.371378465555	211
12	164081	215.371378465555	212
12	164828	216.371378465555	213
12	165575	217.371378465555	214
12	166311	218.371378465555	215
12	167053	219.371378465555	216
12	167795	220.371378465555	217
12	168537	221.371378465555	218
12	169276	222.371378465555	219
12	170021	223.371378465555	220
12	170766	224.371378465555	221
12	171511	225.371378465555	222
12	172258	226.371378465555	223
12	173003	227.371378465555	224
12	173750	228.371378465555	225
12	174495	229.371378465555	226
12	175242	230.371378465555	227
12	175985	231.371378465555	228
12	176732	232.371378465555	229
12	177479	233.371378465555	230
12	178221	234.371378465555	231
12	178960	235.371378465555	232
12	179704	236.371378465555	233
12	180451	237.371378465555	234
12	181196	238.371378465555	235
12	181938	239.371378465555	236
12	182680	240.371378465555	237
12	183427	241.371378465555	238
12	184166	242.371378465555	239
12	184911	243.371378465555	240
12	185653	244.371378465555	241
12	186398	245.371378465555	242
12	187119	246.371378465555	243
12	187838	247.371378465555	244
12	188560	248.371378465555	245
12	189279	249.371378465555	246
12	190001	250.371378465555	247
12	190723	251.371378465555	248
12	191437	252.371378465555	249
12	192157	253.371378465555	250
12	192877	254.371378465555	251
12	193591	255.371378465555	252
12	194313	256.371378465555	253
12	195032	257.371378465555	254
12	195751	258.371378465555	255
12	196467	259.371378465555	256
12	197178	260.371378465555	257
12	197898	261.371378465555	258
12	198620	262.371378465555	259
12	199337	263.371378465555	260
12	200057	264.371378465555	261
12	200773	265.371378465555	262
12	201494	266.371378465555	263
12	202211	267.371378465555	264
12	202927	268.371378465555	265
12	203644	269.371378465555	266
12	204364	270.371378465555	267
12	205081	271.371378465555	268
12	205798	272.371378465555	269
12	206515	273.371378465555	270
12	207229	274.371378465555	271
12	208160	275.371378465555	272
12	208946	276.371378465555	273
12	209734	277.371378465555	274
12	210522	278.371378465555	275
12	211310	279.371378465555	276
12	212100	280.371378465555	277
12	212893	281.371378465555	278
12	213684	282.371378465555	279
12	214473	283.371378465555	280
12	215264	284.371378465555	281
12	216052	285.371378465555	282
12	216842	286.371378465555	283
12	217633	287.371378465555	284
12	218426	288.371378465555	285
12	219212	289.371378465555	286
12	219997	290.371378465555	287
12	220786	291.371378465555	288
12	221573	292.371378465555	289
12	222359	293.371378465555	290
12	223148	294.371378465555	291
12	223941	295.371378465555	292
12	224727	296.371378465555	293
12	225518	297.371378465555	294
12	226311	298.371378465555	295
12	227099	299.371378465555	296
13	2785	3.775786000001	0
13	3420	4.556536000001	1
13	4201	5.540036000001	2
13	5014	6.573036000001	3
13	5804	7.573036000001	4
13	6595	8.575786000001	5
13	7345	9.520786000001	6
13	8144	10.529036000001	7
13	72239	97.581286000001	94
13	73036	98.592286000001	95
13	73774	99.518036000001	96
13	74593	100.559286000001	97
13	75411	101.595036000001	98
13	76167	102.545536000001	99
13	76954	103.537286000001	100
13	77773	104.575786000001	101
13	78555	105.562036000001	102
13	79367	106.589536000001	103
13	80150	107.581286000001	104
13	80896	108.518036000001	105
13	81704	109.545536000001	106
13	82492	110.540036000001	107
13	83310	111.575786000001	108
13	84068	112.529036000001	109
13	84862	113.531786000001	110
13	85670	114.559286000001	111
13	86449	115.545536000001	112
13	87266	116.584036000001	113
13	88057	117.581286000001	114
13	88842	118.581286000001	115
13	89608	119.545536000001	116
13	90408	120.556536000001	117
13	91195	121.553786000001	118
13	92002	122.578536000001	119
13	92753	123.526286000001	120
13	93780	124.778536000001	121
13	94426	125.570286000001	122
13	95214	126.564786000001	123
13	96024	127.589536000001	124
13	100577	133.548286000001	130
13	101351	134.526286000001	131
13	102162	135.553786000001	132
13	102970	136.575786000001	133
13	103779	137.597786000001	134
13	104524	138.537286000001	135
13	105348	139.581286000001	136
13	106144	140.592286000001	137
13	106889	141.529036000001	138
13	107687	142.537286000001	139
13	108465	143.523536000001	140
13	109268	144.540036000001	141
13	110092	145.584036000001	142
13	110871	146.564786000001	143
13	111652	147.548286000001	144
13	112423	148.518036000001	145
13	113266	149.592286000001	146
13	114038	150.564786000001	147
13	114827	151.562036000001	148
13	115642	152.595036000001	149
13	116378	153.518036000001	150
13	117218	154.584036000001	151
13	118017	155.595036000001	152
13	118771	156.548286000001	153
13	119553	157.542786000001	154
13	120343	158.540036000001	155
13	121124	159.534536000001	156
13	121954	160.586786000001	157
13	122697	161.518036000001	158
13	123535	162.586786000001	159
13	124305	163.556536000001	160
13	125069	164.520786000001	161
13	125905	165.581286000001	162
13	126676	166.551036000001	163
13	127463	167.545536000001	164
13	128261	168.556536000001	165
13	129026	169.523536000001	166
13	129817	170.526286000001	167
13	130620	171.542786000001	168
13	131430	172.567536000001	169
13	132196	173.531786000001	170
13	133017	174.573036000001	171
13	133820	175.586786000001	172
13	134592	176.562036000001	173
13	135354	177.529036000001	174
13	136165	178.559286000001	175
13	136950	179.548286000001	176
13	137730	180.545536000001	177
13	138516	181.537286000001	178
13	139306	182.534536000001	179
13	140118	183.562036000001	180
13	140921	184.581286000001	181
13	141689	185.548286000001	182
13	142517	186.597786000001	183
13	143266	187.540036000001	184
13	144068	188.553786000001	185
13	144875	189.575786000001	186
13	145628	190.526286000001	187
13	207671	274.737286000001	269
13	207725	274.786786000001	270
13	207751	274.797786000001	271
13	208363	275.542786000001	272
13	209132	276.520786000001	273
13	209970	277.589536000001	274
13	210738	278.562036000001	275
13	211544	279.584036000001	276
13	212302	280.540036000001	277
13	213105	281.556536000001	278
13	213873	282.523536000001	279
13	214687	283.559286000001	280
13	215482	284.564786000001	281
13	216286	285.584036000001	282
13	217038	286.534536000001	283
13	217839	287.545536000001	284
13	218614	288.526286000001	285
13	219407	289.537286000001	286
13	220204	290.548286000001	287
13	221024	291.589536000001	288
13	221802	292.578536000001	289
13	222544	293.518036000001	290
13	223382	294.584036000001	291
13	224131	295.529036000001	292
13	224927	296.540036000001	293
13	225718	297.537286000001	294
13	226541	298.581286000001	295
13	227342	299.597786000001	296
14	2362	3.371378465555	1
14	93354	124.371378465555	1
14	186401	245.371378465555	1
14	187120	246.371378465555	1
14	187839	247.371378465555	1
14	188564	248.371378465555	1
14	189280	249.371378465555	1
14	190002	250.371378465555	1
14	190727	251.371378465555	1
14	191438	252.371378465555	1
14	192158	253.371378465555	1
14	192881	254.371378465555	1
14	193592	255.371378465555	1
14	194314	256.371378465555	1
14	195036	257.371378465555	1
14	195752	258.371378465555	1
14	196468	259.371378465555	1
14	197182	260.371378465555	1
14	197899	261.371378465555	1
14	198621	262.371378465555	1
14	199341	263.371378465555	1
14	200058	264.371378465555	1
14	200774	265.371378465555	1
14	201498	266.371378465555	1
14	202212	267.371378465555	1
14	202928	268.371378465555	1
14	203648	269.371378465555	1
14	204365	270.371378465555	1
14	205082	271.371378465555	1
14	205802	272.371378465555	1
14	206516	273.371378465555	1
14	207230	274.371378465555	1
16	2362	3.371378465555	1
16	93354	124.371378465555	1
16	186401	245.371378465555	1
16	188564	248.371378465555	1
16	190727	251.371378465555	1
16	192881	254.371378465555	1
16	195036	257.371378465555	1
16	197182	260.371378465555	1
16	199341	263.371378465555	1
16	201498	266.371378465555	1
16	203648	269.371378465555	1
16	205802	272.371378465555	1
17	188561	248.371378465555	1
17	190724	251.371378465555	1
17	192878	254.371378465555	1
17	195033	257.371378465555	1
17	197179	260.371378465555	1
17	199338	263.371378465555	1
17	201495	266.371378465555	1
17	203645	269.371378465555	1
17	205799	272.371378465555	1
